 Gaussian 09, Revision D.01,
 Gaussian 09:  ES64L-G09RevD.01 24-Apr-2013

 -----------------------------------------------------------------
 # freq=savenormalmodes B3LYP/6-31g(d,p) nosymm geom=allcheckpoint
 -----------------------------------------------------------------

 Structure from the checkpoint file:  "antraceno_B3LYPS0.chk"
 ---------
 Antraceno
 ---------
 Charge =  0 Multiplicity = 1

                          Input orientation:
 ---------------------------------------------------------------------
 Center     Atomic      Atomic             Coordinates (Angstroms)
 Number     Number       Type             X           Y           Z
 ---------------------------------------------------------------------
      1          6           0       -4.079544    1.995636    0.000000
      2          6           0       -4.127718    0.570395    0.000000
      3          6           0       -2.875960    2.649255    0.000000
      4          6           0       -1.644228    1.922964    0.000000
      5          6           0       -2.971009   -0.162999    0.000000
      6          6           0       -1.693057    0.478475    0.000000
      7          1           0       -5.007034    2.560571    0.000000
      8          1           0       -2.836884    3.735473    0.000000
      9          1           0       -5.091227    0.069356    0.000000
     10          1           0       -3.005351   -1.249379    0.000000
     11          6           0       -0.398308    2.562279    0.000000
     12          6           0        0.801616    1.840312    0.000000
     13          6           0        0.752787    0.395823    0.000000
     14          6           0       -0.493134   -0.243492    0.000000
     15          1           0       -0.361576    3.649429    0.000000
     16          1           0       -0.529866   -1.330641    0.000000
     17          6           0        2.079567    2.481787    0.000000
     18          6           0        3.236276    1.748392    0.000000
     19          6           0        3.188102    0.323152    0.000000
     20          6           0        1.984518   -0.330468    0.000000
     21          1           0        2.113909    3.568166    0.000000
     22          1           0        4.199785    2.249431    0.000000
     23          1           0        1.945442   -1.416685    0.000000
     24          1           0        4.115592   -0.241783    0.000000
 ---------------------------------------------------------------------

 SCF Done:  E(RB3LYP) =  -539.546287243     A.U. after   13 cycles

 Alpha  occ. eigenvalues --  -10.19770 -10.19769 -10.19732 -10.19730 -10.19089
 Alpha  occ. eigenvalues --  -10.19089 -10.19055 -10.19055 -10.18993 -10.18993
 Alpha  occ. eigenvalues --  -10.18984 -10.18984 -10.18980 -10.18980  -0.87749
 Alpha  occ. eigenvalues --   -0.84621  -0.79764  -0.78069  -0.74851  -0.73521
 Alpha  occ. eigenvalues --   -0.70026  -0.64169  -0.61265  -0.59709  -0.58815
 Alpha  occ. eigenvalues --   -0.53712  -0.51789  -0.50060  -0.46263  -0.45928
 Alpha  occ. eigenvalues --   -0.44896  -0.44136  -0.42148  -0.41168  -0.40304
 Alpha  occ. eigenvalues --   -0.39624  -0.38580  -0.37584  -0.35827  -0.34415
 Alpha  occ. eigenvalues --   -0.33306  -0.32381  -0.30064  -0.29567  -0.25427
 Alpha  occ. eigenvalues --   -0.23757  -0.19254
 Alpha virt. eigenvalues --   -0.06058  -0.01100   0.00794   0.04477   0.06732
 Alpha virt. eigenvalues --    0.09966   0.10274   0.11107   0.14165   0.14662
 Alpha virt. eigenvalues --    0.15548   0.16826   0.17150   0.17813   0.18136

 Mulliken charges:
               1
     1  C   -0.096097
     2  C   -0.096035
     3  C   -0.122182
     4  C    0.110936
     5  C   -0.122114
     6  C    0.110880
     7  H    0.086019
     8  H    0.084275
     9  H    0.086004
    10  H    0.084274
    11  C   -0.209052
    12  C    0.110880
    13  C    0.110936
    14  C   -0.209052
    15  H    0.083091
    16  H    0.083091
    17  C   -0.122114
    18  C   -0.096035
    19  C   -0.096097
    20  C   -0.122182
    21  H    0.084274
    22  H    0.086004
    23  H    0.084275
    24  H    0.086019
 Sum of Mulliken charges =   0.00000

 Dipole moment (field-independent basis, Debye):
    X=              0.0000    Y=              0.0000    Z=              0.0000  Tot=              0.0000
 Quadrupole moment (field-independent basis, Debye-Ang):
   XX=            -69.9345   YY=            -70.7205   ZZ=            -85.6820
   XY=             -0.0268   XZ=              0.0000   YZ=              0.0000

  Exact polarizability: 269.687  -3.998 151.505   0.000   0.000  44.964
 Approx polarizability: 457.869  -5.681 289.904   0.000   0.000  72.464

                      1                      2                      3
                      A                      A                      A
 Frequencies --     93.2641               123.7178               235.3962
 Red. masses --      4.9264                 3.6927                 4.4613
 Frc consts  --      0.0252                 0.0333                 0.1457
 IR Inten    --      0.8163                 0.0000                 1.2897

                      4                      5                      6
                      A                      A                      A
 Frequencies --    238.9254               272.9633               388.4489
 Red. masses --      4.8209                 3.7222                 3.3694
 Frc consts  --      0.1621                 0.1634                 0.2995
 IR Inten    --      0.0000                 0.0000                 0.0692

                      7                      8                      9
                      A                      A                      A
 Frequencies --    394.1686               398.8969               484.6399
 Red. masses --      4.6207                 6.7019                 2.4782
 Frc consts  --      0.4230                 0.6283                 0.3429
 IR Inten    --      0.0000                 0.0000                12.6639

                     10                     11                     12
                      A                      A                      A
 Frequencies --    488.2986               507.9471               534.1140
 Red. masses --      2.8707                 3.6132                 6.2830
 Frc consts  --      0.4033                 0.5493                 1.0560
 IR Inten    --      0.0000                 0.0000                 0.0000

                     13                     14                     15
                      A                      A                      A
 Frequencies --    590.6755               617.3135               641.2709
 Red. masses --      3.5052                 6.7860                 6.6596
 Frc consts  --      0.7205                 1.5236                 1.6135
 IR Inten    --      0.0000                 8.2205                 0.0000

                     16                     17                     18
                      A                      A                      A
 Frequencies --    661.0212               746.1745               758.5245
 Red. masses --      6.0674                 1.1891                 4.0029
 Frc consts  --      1.5620                 0.3901                 1.3569
 IR Inten    --      0.8091                58.3231                 0.0000

                     19                     20                     21
                      A                      A                      A
 Frequencies --    766.0581               775.2673               781.7024
 Red. masses --      5.6309                 1.3359                 2.9398
 Frc consts  --      1.9469                 0.4731                 1.0584
 IR Inten    --      0.0000                 0.0000                 0.0000

                     22                     23                     24
                      A                      A                      A
 Frequencies --    825.2923               851.3580               871.2430
 Red. masses --      3.6318                 1.2700                 1.5357
 Frc consts  --      1.4574                 0.5423                 0.6868
 IR Inten    --      0.0045                 0.0000                 0.0000

                     25                     26                     27
                      A                      A                      A
 Frequencies --    894.6752               916.2414               916.8748
 Red. masses --      1.4411                 5.5827                 1.6744
 Frc consts  --      0.6796                 2.7613                 0.8294
 IR Inten    --     51.4182                 1.7463                 0.0000

                     28                     29                     30
                      A                      A                      A
 Frequencies --    926.6022               962.4742               967.2491
 Red. masses --      5.4899                 1.3204                 1.3567
 Frc consts  --      2.7771                 0.7206                 0.7479
 IR Inten    --      0.0000                 0.0000                 5.7712

                     31                     32                     33
                      A                      A                      A
 Frequencies --    992.4375               993.5963              1034.0606
 Red. masses --      1.2724                 1.2839                 2.2995
 Frc consts  --      0.7384                 0.7468                 1.4487
 IR Inten    --      0.0000                 0.0000                 4.0841

                     34                     35                     36
                      A                      A                      A
 Frequencies --   1038.3236              1132.3370              1169.3536
 Red. masses --      2.3847                 2.1520                 1.3424
 Frc consts  --      1.5148                 1.6257                 1.0815
 IR Inten    --      0.0000                 0.0000                 1.5051

                     37                     38                     39
                      A                      A                      A
 Frequencies --   1177.7509              1194.1962              1195.7027
 Red. masses --      1.3708                 1.0647                 1.3556
 Frc consts  --      1.1203                 0.8946                 1.1419
 IR Inten    --      4.9349                 0.0000                 1.7686

                     40                     41                     42
                      A                      A                      A
 Frequencies --   1217.1381              1293.4881              1300.3935
 Red. masses --      1.2139                 1.9095                 1.8258
 Frc consts  --      1.0595                 1.8824                 1.8191
 IR Inten    --      0.0000                 7.5200                 0.0000

                     43                     44                     45
                      A                      A                      A
 Frequencies --   1300.6632              1345.5843              1391.7062
 Red. masses --      2.0835                 3.2544                 3.3168
 Frc consts  --      2.0767                 3.4717                 3.7850
 IR Inten    --      0.0000                 4.6400                 3.6123

                     46                     47                     48
                      A                      A                      A
 Frequencies --   1421.2978              1430.0187              1443.4596
 Red. masses --      1.5785                 4.2779                 9.6377
 Frc consts  --      1.8787                 5.1542                11.8313
 IR Inten    --      0.0000                 0.7819                 0.0000

                     49                     50                     51
                      A                      A                      A
 Frequencies --   1494.0011              1496.8081              1529.6301
 Red. masses --      1.9737                 2.8216                 2.6557
 Frc consts  --      2.5956                 3.7246                 3.6610
 IR Inten    --      1.8291                 1.2237                 0.0000

                     52                     53                     54
                      A                      A                      A
 Frequencies --   1594.0078              1607.5703              1637.8376
 Red. masses --      5.0972                 7.2498                 5.1396
 Frc consts  --      7.6306                11.0386                 8.1232
 IR Inten    --      4.5933                 0.0000                 0.0000

                     55                     56                     57
                      A                      A                      A
 Frequencies --   1683.0010              1685.3090              3169.7304
 Red. masses --      6.1025                 5.7090                 1.0892
 Frc consts  --     10.1842                 9.5537                 6.4479
 IR Inten    --      0.0000                 6.6233                10.1896

                     58                     59                     60
                      A                      A                      A
 Frequencies --   3171.5616              3174.8711              3175.5135
 Red. masses --      1.0902                 1.0855                 1.0861
 Frc consts  --      6.4610                 6.4463                 6.4527
 IR Inten    --      0.0000                 0.0000                13.7566

                     61                     62                     63
                      A                      A                      A
 Frequencies --   3179.0476              3180.4261              3193.1269
 Red. masses --      1.0879                 1.0880                 1.0940
 Frc consts  --      6.4779                 6.4843                 6.5722
 IR Inten    --      0.0157                 0.0000                 0.0000

                     64                     65                     66
                      A                      A                      A
 Frequencies --   3193.3981              3205.5867              3206.0794
 Red. masses --      1.0941                 1.0976                 1.0976
 Frc consts  --      6.5738                 6.6454                 6.6474
 IR Inten    --     66.8799                68.4678                 0.0000

 - Thermochemistry -
 -------------------
 Temperature   298.150 Kelvin.  Pressure   1.00000 Atm.
 Atom     1 has atomic number  6 and mass  12.00000

 Molecular mass:   178.07825 amu.
 Principal axes and moments of inertia in atomic units:
                           1         2         3
     Eigenvalues --   841.407274000.079324841.48659
           X            0.99943   0.03377   0.00000
           Y           -0.03377   0.99943   0.00000
           Z            0.00000   0.00000   1.00000
 This molecule is an asymmetric top.
 Rotational symmetry number  1.
 Warning -- assumption of classical behavior for rotation
           may cause significant error
 Rotational temperatures (Kelvin)      0.10294     0.02165     0.01789
 Rotational constants (GHZ):           2.14491     0.45118     0.37277
 Zero-point vibrational energy     510086.6 (Joules/Mol)
                                  121.91361 (Kcal/Mol)
 Warning -- explicit consideration of  14 degrees of freedom as
           vibrations may cause significant error
 Vibrational temperatures:    134.19   178.00   338.68   343.76   392.73
          (Kelvin)            558.89   567.12   573.92   697.29   702.55
                              730.82   768.47   849.85   888.18   922.64
                              951.06  1073.58  1091.35  1102.19  1115.44
                             1124.69  1187.41  1224.91  1253.52  1287.24
                             1318.27  1319.18  1333.17  1384.78  1391.65
                             1427.89  1429.56  1487.78  1493.91  1629.18
                             1682.44  1694.52  1718.18  1720.35  1751.19
                             1861.04  1870.97  1871.36  1935.99  2002.35
                             2044.93  2057.48  2076.81  2149.53  2153.57
                             2200.79  2293.42  2312.93  2356.48  2421.46
                             2424.78  4560.53  4563.16  4567.93  4568.85
                             4573.93  4575.92  4594.19  4594.58  4612.12
                             4612.83

 Zero-point correction=                           0.194282 (Hartree/Particle)
 Thermal correction to Energy=                    0.203712
 Thermal correction to Enthalpy=                  0.204656
 Thermal correction to Gibbs Free Energy=         0.159540
 Sum of electronic and zero-point Energies=           -539.352006
 Sum of electronic and thermal Energies=              -539.342575
 Sum of electronic and thermal Enthalpies=            -539.341631
 Sum of electronic and thermal Free Energies=         -539.386748

                     E (Thermal)             CV                S
                      KCal/Mol        Cal/Mol-Kelvin    Cal/Mol-Kelvin
 Total                  127.831             40.655             94.956
 Electronic               0.000              0.000              0.000
 Translational            0.889              2.981             41.438
 Rotational               0.889              2.981             31.167
 Vibrational            126.054             34.694             22.352
 Vibration     1          0.602              1.954              3.590
 Vibration     2          0.610              1.929              3.041
 Vibration     3          0.655              1.787              1.837
 Vibration     4          0.657              1.781              1.811
 Vibration     5          0.676              1.723              1.577
 Vibration     6          0.757              1.495              1.006
 Vibration     7          0.761              1.483              0.984
 Vibration     8          0.765              1.472              0.967
 Vibration     9          0.841              1.284              0.698
 Vibration    10          0.844              1.276              0.688
 Vibration    11          0.863              1.232              0.639
 Vibration    12          0.889              1.175              0.578
 Vibration    13          0.948              1.052              0.466
 Vibration    14          0.977              0.995              0.421

 Optimization completed.
    -- Stationary point found.
 Normal termination of Gaussian 09 at Sat Jun 30 20:35:33 2018.
